<?xml version="1.0" encoding="UTF-8"?>

<!-- generated on 2023-06-27 23:08:27 by Eclipse SUMO GUI Version 1.17.0
<configuration xmlns:xsi="http://www.w3.org/2001/XMLSchema-instance" xsi:noNamespaceSchemaLocation="http://sumo.dlr.de/xsd/sumoConfiguration.xsd">

    <input>
        <net-file value="test.net.xml"/>
        <route-files value="test.rou.xml"/>
        <additional-files value="test.e2.xml,test.e3.xml"/>
    </input>

    <time>
        <step-length value="0.5"/>
    </time>

    <processing>
        <time-to-teleport value="600"/>
    </processing>

    <report>
        <no-step-log value="true"/>
    </report>

    <traci_server>
        <remote-port value="55238"/>
    </traci_server>

    <gui_only>
        <gui-settings-file value="gui.cfg"/>
        <quit-on-end value="true"/>
        <delay value="0"/>
    </gui_only>

</configuration>
-->

<detector xmlns:xsi="http://www.w3.org/2001/XMLSchema-instance" xsi:noNamespaceSchemaLocation="http://sumo.dlr.de/xsd/det_e2_file.xsd">
   <interval begin="0.00" end="300.00" id="e2_0" sampledSeconds="78.21" nVehEntered="8" nVehLeft="8" nVehSeen="8" meanSpeed="13.30" meanTimeLoss="0.24" meanOccupancy="0.40" maxOccupancy="3.08" meanMaxJamLengthInVehicles="0.00" meanMaxJamLengthInMeters="0.00" maxJamLengthInVehicles="0" maxJamLengthInMeters="0.00" jamLengthInVehiclesSum="0" jamLengthInMetersSum="0.00" meanHaltingDuration="0.00" maxHaltingDuration="0.00" haltingDurationSum="0.00" meanIntervalHaltingDuration="0.00" maxIntervalHaltingDuration="0.00" intervalHaltingDurationSum="0.00" startedHalts="0.00" meanVehicleNumber="0.27" maxVehicleNumber="2" />
   <interval begin="0.00" end="300.00" id="e2_1" sampledSeconds="72.84" nVehEntered="8" nVehLeft="8" nVehSeen="8" meanSpeed="13.00" meanTimeLoss="0.48" meanOccupancy="0.37" maxOccupancy="6.17" meanMaxJamLengthInVehicles="0.00" meanMaxJamLengthInMeters="0.00" maxJamLengthInVehicles="0" maxJamLengthInMeters="0.00" jamLengthInVehiclesSum="0" jamLengthInMetersSum="0.00" meanHaltingDuration="0.00" maxHaltingDuration="0.00" haltingDurationSum="0.00" meanIntervalHaltingDuration="0.00" maxIntervalHaltingDuration="0.00" intervalHaltingDurationSum="0.00" startedHalts="0.00" meanVehicleNumber="0.24" maxVehicleNumber="4" />
   <interval begin="0.00" end="300.00" id="e2_2" sampledSeconds="5.33" nVehEntered="5" nVehLeft="5" nVehSeen="5" meanSpeed="12.54" meanTimeLoss="0.12" meanOccupancy="0.03" maxOccupancy="2.44" meanMaxJamLengthInVehicles="0.00" meanMaxJamLengthInMeters="0.00" maxJamLengthInVehicles="0" maxJamLengthInMeters="0.00" jamLengthInVehiclesSum="0" jamLengthInMetersSum="0.00" meanHaltingDuration="0.00" maxHaltingDuration="0.00" haltingDurationSum="0.00" meanIntervalHaltingDuration="0.00" maxIntervalHaltingDuration="0.00" intervalHaltingDurationSum="0.00" startedHalts="0.00" meanVehicleNumber="0.02" maxVehicleNumber="2" />
   <interval begin="0.00" end="300.00" id="e2_3" sampledSeconds="74.47" nVehEntered="3" nVehLeft="3" nVehSeen="3" meanSpeed="12.22" meanTimeLoss="0.63" meanOccupancy="0.38" maxOccupancy="3.08" meanMaxJamLengthInVehicles="0.00" meanMaxJamLengthInMeters="0.00" maxJamLengthInVehicles="0" maxJamLengthInMeters="0.00" jamLengthInVehiclesSum="0" jamLengthInMetersSum="0.00" meanHaltingDuration="0.00" maxHaltingDuration="0.00" haltingDurationSum="0.00" meanIntervalHaltingDuration="0.00" maxIntervalHaltingDuration="0.00" intervalHaltingDurationSum="0.00" startedHalts="0.00" meanVehicleNumber="0.25" maxVehicleNumber="2" />
   <interval begin="0.00" end="300.00" id="e2_4" sampledSeconds="75.53" nVehEntered="7" nVehLeft="7" nVehSeen="7" meanSpeed="13.51" meanTimeLoss="0.24" meanOccupancy="0.38" maxOccupancy="3.08" meanMaxJamLengthInVehicles="0.00" meanMaxJamLengthInMeters="0.00" maxJamLengthInVehicles="0" maxJamLengthInMeters="0.00" jamLengthInVehiclesSum="0" jamLengthInMetersSum="0.00" meanHaltingDuration="0.00" maxHaltingDuration="0.00" haltingDurationSum="0.00" meanIntervalHaltingDuration="0.00" maxIntervalHaltingDuration="0.00" intervalHaltingDurationSum="0.00" startedHalts="0.00" meanVehicleNumber="0.26" maxVehicleNumber="2" />
   <interval begin="0.00" end="300.00" id="e2_5" sampledSeconds="54.36" nVehEntered="7" nVehLeft="7" nVehSeen="7" meanSpeed="12.48" meanTimeLoss="0.18" meanOccupancy="0.28" maxOccupancy="3.08" meanMaxJamLengthInVehicles="0.00" meanMaxJamLengthInMeters="0.00" maxJamLengthInVehicles="0" maxJamLengthInMeters="0.00" jamLengthInVehiclesSum="0" jamLengthInMetersSum="0.00" meanHaltingDuration="0.00" maxHaltingDuration="0.00" haltingDurationSum="0.00" meanIntervalHaltingDuration="0.00" maxIntervalHaltingDuration="0.00" intervalHaltingDurationSum="0.00" startedHalts="0.00" meanVehicleNumber="0.18" maxVehicleNumber="2" />
   <interval begin="0.00" end="300.00" id="e2_6" sampledSeconds="21.14" nVehEntered="4" nVehLeft="4" nVehSeen="4" meanSpeed="15.63" meanTimeLoss="0.11" meanOccupancy="0.11" maxOccupancy="3.08" meanMaxJamLengthInVehicles="0.00" meanMaxJamLengthInMeters="0.00" maxJamLengthInVehicles="0" maxJamLengthInMeters="0.00" jamLengthInVehiclesSum="0" jamLengthInMetersSum="0.00" meanHaltingDuration="0.00" maxHaltingDuration="0.00" haltingDurationSum="0.00" meanIntervalHaltingDuration="0.00" maxIntervalHaltingDuration="0.00" intervalHaltingDurationSum="0.00" startedHalts="0.00" meanVehicleNumber="0.07" maxVehicleNumber="2" />
   <interval begin="0.00" end="300.00" id="e2_7" sampledSeconds="66.34" nVehEntered="3" nVehLeft="3" nVehSeen="3" meanSpeed="14.08" meanTimeLoss="0.48" meanOccupancy="0.33" maxOccupancy="3.08" meanMaxJamLengthInVehicles="0.00" meanMaxJamLengthInMeters="0.00" maxJamLengthInVehicles="0" maxJamLengthInMeters="0.00" jamLengthInVehiclesSum="0" jamLengthInMetersSum="0.00" meanHaltingDuration="0.00" maxHaltingDuration="0.00" haltingDurationSum="0.00" meanIntervalHaltingDuration="0.00" maxIntervalHaltingDuration="0.00" intervalHaltingDurationSum="0.00" startedHalts="0.00" meanVehicleNumber="0.22" maxVehicleNumber="2" />
   <interval begin="0.00" end="300.00" id="e2_8" sampledSeconds="74.67" nVehEntered="9" nVehLeft="9" nVehSeen="9" meanSpeed="13.77" meanTimeLoss="0.20" meanOccupancy="0.38" maxOccupancy="3.08" meanMaxJamLengthInVehicles="0.00" meanMaxJamLengthInMeters="0.00" maxJamLengthInVehicles="0" maxJamLengthInMeters="0.00" jamLengthInVehiclesSum="0" jamLengthInMetersSum="0.00" meanHaltingDuration="0.00" maxHaltingDuration="0.00" haltingDurationSum="0.00" meanIntervalHaltingDuration="0.00" maxIntervalHaltingDuration="0.00" intervalHaltingDurationSum="0.00" startedHalts="0.00" meanVehicleNumber="0.26" maxVehicleNumber="2" />
   <interval begin="0.00" end="300.00" id="e2_9" sampledSeconds="92.52" nVehEntered="10" nVehLeft="10" nVehSeen="10" meanSpeed="14.09" meanTimeLoss="0.21" meanOccupancy="0.47" maxOccupancy="1.54" meanMaxJamLengthInVehicles="0.00" meanMaxJamLengthInMeters="0.00" maxJamLengthInVehicles="0" maxJamLengthInMeters="0.00" jamLengthInVehiclesSum="0" jamLengthInMetersSum="0.00" meanHaltingDuration="0.00" maxHaltingDuration="0.00" haltingDurationSum="0.00" meanIntervalHaltingDuration="0.00" maxIntervalHaltingDuration="0.00" intervalHaltingDurationSum="0.00" startedHalts="0.00" meanVehicleNumber="0.32" maxVehicleNumber="1" />
   <interval begin="0.00" end="300.00" id="e2_10" sampledSeconds="25.65" nVehEntered="4" nVehLeft="4" nVehSeen="4" meanSpeed="13.65" meanTimeLoss="0.15" meanOccupancy="0.13" maxOccupancy="1.54" meanMaxJamLengthInVehicles="0.00" meanMaxJamLengthInMeters="0.00" maxJamLengthInVehicles="0" maxJamLengthInMeters="0.00" jamLengthInVehiclesSum="0" jamLengthInMetersSum="0.00" meanHaltingDuration="0.00" maxHaltingDuration="0.00" haltingDurationSum="0.00" meanIntervalHaltingDuration="0.00" maxIntervalHaltingDuration="0.00" intervalHaltingDurationSum="0.00" startedHalts="0.00" meanVehicleNumber="0.09" maxVehicleNumber="1" />
   <interval begin="0.00" end="300.00" id="e2_11" sampledSeconds="45.34" nVehEntered="2" nVehLeft="2" nVehSeen="2" meanSpeed="13.48" meanTimeLoss="0.50" meanOccupancy="0.23" maxOccupancy="1.54" meanMaxJamLengthInVehicles="0.00" meanMaxJamLengthInMeters="0.00" maxJamLengthInVehicles="0" maxJamLengthInMeters="0.00" jamLengthInVehiclesSum="0" jamLengthInMetersSum="0.00" meanHaltingDuration="0.00" maxHaltingDuration="0.00" haltingDurationSum="0.00" meanIntervalHaltingDuration="0.00" maxIntervalHaltingDuration="0.00" intervalHaltingDurationSum="0.00" startedHalts="0.00" meanVehicleNumber="0.15" maxVehicleNumber="1" />
   <interval begin="0.00" end="300.00" id="e2_12" sampledSeconds="57.58" nVehEntered="7" nVehLeft="7" nVehSeen="7" meanSpeed="12.42" meanTimeLoss="0.25" meanOccupancy="0.29" maxOccupancy="3.08" meanMaxJamLengthInVehicles="0.00" meanMaxJamLengthInMeters="0.00" maxJamLengthInVehicles="0" maxJamLengthInMeters="0.00" jamLengthInVehiclesSum="0" jamLengthInMetersSum="0.00" meanHaltingDuration="0.00" maxHaltingDuration="0.00" haltingDurationSum="0.00" meanIntervalHaltingDuration="0.00" maxIntervalHaltingDuration="0.00" intervalHaltingDurationSum="0.00" startedHalts="0.00" meanVehicleNumber="0.20" maxVehicleNumber="2" />
   <interval begin="0.00" end="300.00" id="e2_13" sampledSeconds="40.07" nVehEntered="7" nVehLeft="6" nVehSeen="7" meanSpeed="11.84" meanTimeLoss="0.16" meanOccupancy="0.20" maxOccupancy="1.54" meanMaxJamLengthInVehicles="0.00" meanMaxJamLengthInMeters="0.00" maxJamLengthInVehicles="0" maxJamLengthInMeters="0.00" jamLengthInVehiclesSum="0" jamLengthInMetersSum="0.00" meanHaltingDuration="0.00" maxHaltingDuration="0.00" haltingDurationSum="0.00" meanIntervalHaltingDuration="0.00" maxIntervalHaltingDuration="0.00" intervalHaltingDurationSum="0.00" startedHalts="0.00" meanVehicleNumber="0.14" maxVehicleNumber="1" />
   <interval begin="0.00" end="300.00" id="e2_14" sampledSeconds="47.38" nVehEntered="5" nVehLeft="5" nVehSeen="5" meanSpeed="13.59" meanTimeLoss="0.24" meanOccupancy="0.24" maxOccupancy="3.08" meanMaxJamLengthInVehicles="0.00" meanMaxJamLengthInMeters="0.00" maxJamLengthInVehicles="0" maxJamLengthInMeters="0.00" jamLengthInVehiclesSum="0" jamLengthInMetersSum="0.00" meanHaltingDuration="0.00" maxHaltingDuration="0.00" haltingDurationSum="0.00" meanIntervalHaltingDuration="0.00" maxIntervalHaltingDuration="0.00" intervalHaltingDurationSum="0.00" startedHalts="0.00" meanVehicleNumber="0.16" maxVehicleNumber="2" />
   <interval begin="0.00" end="300.00" id="e2_15" sampledSeconds="43.91" nVehEntered="2" nVehLeft="2" nVehSeen="2" meanSpeed="13.83" meanTimeLoss="0.51" meanOccupancy="0.22" maxOccupancy="1.54" meanMaxJamLengthInVehicles="0.00" meanMaxJamLengthInMeters="0.00" maxJamLengthInVehicles="0" maxJamLengthInMeters="0.00" jamLengthInVehiclesSum="0" jamLengthInMetersSum="0.00" meanHaltingDuration="0.00" maxHaltingDuration="0.00" haltingDurationSum="0.00" meanIntervalHaltingDuration="0.00" maxIntervalHaltingDuration="0.00" intervalHaltingDurationSum="0.00" startedHalts="0.00" meanVehicleNumber="0.15" maxVehicleNumber="1" />
   <interval begin="0.00" end="300.00" id="me2_0" sampledSeconds="90.42" nVehEntered="8" nVehLeft="8" nVehSeen="8" meanSpeed="12.90" meanTimeLoss="0.45" meanOccupancy="0.40" maxOccupancy="3.24" meanMaxJamLengthInVehicles="0.00" meanMaxJamLengthInMeters="0.00" maxJamLengthInVehicles="0" maxJamLengthInMeters="0.00" jamLengthInVehiclesSum="0" jamLengthInMetersSum="0.00" meanHaltingDuration="0.00" maxHaltingDuration="0.00" haltingDurationSum="0.00" meanIntervalHaltingDuration="0.00" maxIntervalHaltingDuration="0.00" intervalHaltingDurationSum="0.00" startedHalts="0.00" meanVehicleNumber="0.31" maxVehicleNumber="3" />
   <interval begin="0.00" end="300.00" id="me2_1" sampledSeconds="176.64" nVehEntered="8" nVehLeft="8" nVehSeen="8" meanSpeed="6.07" meanTimeLoss="12.31" meanOccupancy="0.79" maxOccupancy="5.46" meanMaxJamLengthInVehicles="0.27" meanMaxJamLengthInMeters="1.73" maxJamLengthInVehicles="3" maxJamLengthInMeters="20.58" jamLengthInVehiclesSum="160" jamLengthInMetersSum="1037.80" meanHaltingDuration="27.67" maxHaltingDuration="32.50" haltingDurationSum="83.00" meanIntervalHaltingDuration="27.67" maxIntervalHaltingDuration="32.50" intervalHaltingDurationSum="83.00" startedHalts="3.00" meanVehicleNumber="0.59" maxVehicleNumber="4" />
   <interval begin="0.00" end="300.00" id="me2_2" sampledSeconds="5.33" nVehEntered="5" nVehLeft="5" nVehSeen="5" meanSpeed="12.54" meanTimeLoss="0.12" meanOccupancy="0.02" maxOccupancy="2.16" meanMaxJamLengthInVehicles="0.00" meanMaxJamLengthInMeters="0.00" maxJamLengthInVehicles="0" maxJamLengthInMeters="0.00" jamLengthInVehiclesSum="0" jamLengthInMetersSum="0.00" meanHaltingDuration="0.00" maxHaltingDuration="0.00" haltingDurationSum="0.00" meanIntervalHaltingDuration="0.00" maxIntervalHaltingDuration="0.00" intervalHaltingDurationSum="0.00" startedHalts="0.00" meanVehicleNumber="0.02" maxVehicleNumber="2" />
   <interval begin="0.00" end="300.00" id="me2_3" sampledSeconds="184.07" nVehEntered="3" nVehLeft="3" nVehSeen="3" meanSpeed="5.63" meanTimeLoss="33.70" meanOccupancy="0.83" maxOccupancy="2.73" meanMaxJamLengthInVehicles="0.29" meanMaxJamLengthInMeters="1.59" maxJamLengthInVehicles="2" maxJamLengthInMeters="13.06" jamLengthInVehiclesSum="176" jamLengthInMetersSum="956.21" meanHaltingDuration="30.33" maxHaltingDuration="45.50" haltingDurationSum="91.00" meanIntervalHaltingDuration="30.33" maxIntervalHaltingDuration="45.50" intervalHaltingDurationSum="91.00" startedHalts="3.00" meanVehicleNumber="0.62" maxVehicleNumber="2" />
   <interval begin="0.00" end="300.00" id="me2_4" sampledSeconds="87.61" nVehEntered="7" nVehLeft="7" nVehSeen="7" meanSpeed="13.09" meanTimeLoss="0.47" meanOccupancy="0.39" maxOccupancy="2.73" meanMaxJamLengthInVehicles="0.00" meanMaxJamLengthInMeters="0.00" maxJamLengthInVehicles="0" maxJamLengthInMeters="0.00" jamLengthInVehiclesSum="0" jamLengthInMetersSum="0.00" meanHaltingDuration="0.00" maxHaltingDuration="0.00" haltingDurationSum="0.00" meanIntervalHaltingDuration="0.00" maxIntervalHaltingDuration="0.00" intervalHaltingDurationSum="0.00" startedHalts="0.00" meanVehicleNumber="0.30" maxVehicleNumber="2" />
   <interval begin="0.00" end="300.00" id="me2_5" sampledSeconds="256.64" nVehEntered="7" nVehLeft="6" nVehSeen="7" meanSpeed="2.95" meanTimeLoss="28.20" meanOccupancy="1.16" maxOccupancy="2.73" meanMaxJamLengthInVehicles="0.64" meanMaxJamLengthInMeters="3.18" maxJamLengthInVehicles="1" maxJamLengthInMeters="5.00" jamLengthInVehiclesSum="382" jamLengthInMetersSum="1910.00" meanHaltingDuration="96.50" maxHaltingDuration="111.50" haltingDurationSum="193.00" meanIntervalHaltingDuration="96.50" maxIntervalHaltingDuration="111.50" intervalHaltingDurationSum="193.00" startedHalts="2.00" meanVehicleNumber="0.86" maxVehicleNumber="2" />
   <interval begin="0.00" end="300.00" id="me2_6" sampledSeconds="74.61" nVehEntered="4" nVehLeft="4" nVehSeen="4" meanSpeed="4.99" meanTimeLoss="12.83" meanOccupancy="0.34" maxOccupancy="2.73" meanMaxJamLengthInVehicles="0.16" meanMaxJamLengthInMeters="0.78" maxJamLengthInVehicles="1" maxJamLengthInMeters="5.00" jamLengthInVehiclesSum="94" jamLengthInMetersSum="470.00" meanHaltingDuration="48.00" maxHaltingDuration="48.00" haltingDurationSum="48.00" meanIntervalHaltingDuration="48.00" maxIntervalHaltingDuration="48.00" intervalHaltingDurationSum="48.00" startedHalts="1.00" meanVehicleNumber="0.25" maxVehicleNumber="2" />
   <interval begin="0.00" end="300.00" id="me2_7" sampledSeconds="247.61" nVehEntered="3" nVehLeft="2" nVehSeen="3" meanSpeed="4.26" meanTimeLoss="58.03" meanOccupancy="1.12" maxOccupancy="2.73" meanMaxJamLengthInVehicles="0.54" meanMaxJamLengthInMeters="3.00" maxJamLengthInVehicles="2" maxJamLengthInMeters="13.11" jamLengthInVehiclesSum="323" jamLengthInMetersSum="1801.11" meanHaltingDuration="54.83" maxHaltingDuration="77.50" haltingDurationSum="164.50" meanIntervalHaltingDuration="54.83" maxIntervalHaltingDuration="77.50" intervalHaltingDurationSum="164.50" startedHalts="3.00" meanVehicleNumber="0.83" maxVehicleNumber="2" />
   <interval begin="0.00" end="300.00" id="me2_8" sampledSeconds="86.13" nVehEntered="9" nVehLeft="9" nVehSeen="9" meanSpeed="13.40" meanTimeLoss="0.34" meanOccupancy="0.39" maxOccupancy="2.73" meanMaxJamLengthInVehicles="0.00" meanMaxJamLengthInMeters="0.00" maxJamLengthInVehicles="0" maxJamLengthInMeters="0.00" jamLengthInVehiclesSum="0" jamLengthInMetersSum="0.00" meanHaltingDuration="0.00" maxHaltingDuration="0.00" haltingDurationSum="0.00" meanIntervalHaltingDuration="0.00" maxIntervalHaltingDuration="0.00" intervalHaltingDurationSum="0.00" startedHalts="0.00" meanVehicleNumber="0.29" maxVehicleNumber="2" />
   <interval begin="0.00" end="300.00" id="me2_9" sampledSeconds="245.84" nVehEntered="10" nVehLeft="9" nVehSeen="10" meanSpeed="5.96" meanTimeLoss="14.41" meanOccupancy="1.11" maxOccupancy="2.73" meanMaxJamLengthInVehicles="0.42" meanMaxJamLengthInMeters="2.18" maxJamLengthInVehicles="2" maxJamLengthInMeters="13.05" jamLengthInVehiclesSum="254" jamLengthInMetersSum="1310.96" meanHaltingDuration="32.75" maxHaltingDuration="96.00" haltingDurationSum="131.00" meanIntervalHaltingDuration="32.75" maxIntervalHaltingDuration="96.00" intervalHaltingDurationSum="131.00" startedHalts="4.00" meanVehicleNumber="0.82" maxVehicleNumber="2" />
   <interval begin="0.0on="51.50" intervalHaltingDurationSum="96.50" startedHalts="2.00" meanVehicleNumber="0.74" maxVehicleNumber="3" />
   <interval begin="0.00" end="300.00" id="me2_10" sampledSeconds="64.72" nVehEntered="9" nVehLeft="9" nVehSeen="9" meanSpeed="12.44" meanTimeLoss="1.10" meanOccupancy="0.29" maxOccupancy="2.73" meanMaxJamLengthInVehicles="0.01" meanMaxJamLengthInMeters="0.07" maxJamLengthInVehicles="1" maxJamLengthInMeters="5.00" jamLengthInVehiclesSum="9" jamLengthInMetersSum="45.00" meanHaltingDuration="5.50" maxHaltingDuration="5.50" haltingDurationSum="5.50" meanIntervalHaltingDuration="5.50" maxIntervalHaltingDuration="5.50" intervalHaltingDurationSum="5.50" startedHalts="1.00" meanVehicleNumber="0.22" maxVehicleNumber="2" />
   <interval begin="0.00" end="300.00" id="me2_11" sampledSeconds="620.22" nVehEntered="7" nVehLeft="7" nVehSeen="7" meanSpeed="2.22" meanTimeLoss="75.37" meanOccupancy="2.81" maxOccupancy="6.83" meanMaxJamLengthInVehicles="1.68" meanMaxJamLengthInMeters="11.41" maxJamLengthInVehicles="4" maxJamLengthInMeters="28.08" jamLengthInVehiclesSum="1009" jamLengthInMetersSum="6845.20" meanHaltingDuration="127.12" maxHaltingDuration="144.00" haltingDurationSum="508.50" meanIntervalHaltingDuration="127.12" maxIntervalHaltingDuration="144.00" intervalHaltingDurationSum="508.50" startedHalts="4.00" meanVehicleNumber="2.08" maxVehicleNumber="5" />
   <interval begin="0.00" end="300.00" id="me2_12" sampledSeconds="276.98" nVehEntered="23" nVehLeft="19" nVehSeen="23" meanSpeed="13.22" meanTimeLoss="0.44" meanOccupancy="1.24" maxOccupancy="5.46" meanMaxJamLengthInVehicles="0.00" meanMaxJamLengthInMeters="0.00" maxJamLengthInVehicles="0" maxJamLengthInMeters="0.00" jamLengthInVehiclesSum="0" jamLengthInMetersSum="0.00" meanHaltingDuration="0.00" maxHaltingDuration="0.00" haltingDurationSum="0.00" meanIntervalHaltingDuration="0.00" maxIntervalHaltingDuration="0.00" intervalHaltingDurationSum="0.00" startedHalts="0.00" meanVehicleNumber="0.94" maxVehicleNumber="4" />
   <interval begin="0.00" end="300.00" id="me2_13" sampledSeconds="330.00" nVehEntered="23" nVehLeft="22" nVehSeen="23" meanSpeed="5.87" meanTimeLoss="8.25" meanOccupancy="1.49" maxOccupancy="5.46" meanMaxJamLengthInVehicles="0.57" meanMaxJamLengthInMeters="3.02" maxJamLengthInVehicles="2" maxJamLengthInMeters="13.07" jamLengthInVehiclesSum="344" jamLengthInMetersSum="1811.06" meanHaltingDuration="58.33" maxHaltingDuration="149.00" haltingDurationSum="175.00" meanIntervalHaltingDuration="58.33" maxIntervalHaltingDuration="149.00" intervalHaltingDurationSum="175.00" startedHalts="3.00" meanVehicleNumber="1.11" maxVehicleNumber="4" />
   <interval begin="0.00" end="300.00" id="me2_14" sampledSeconds="306.32" nVehEntered="27" nVehLeft="27" nVehSeen="27" meanSpeed="6.47" meanTimeLoss="6.20" meanOccupancy="1.38" maxOccupancy="8.19" meanMaxJamLengthInVehicles="0.45" meanMaxJamLengthInMeters="2.94" maxJamLengthInVehicles="4" maxJamLengthInMeters="28.08" jamLengthInVehiclesSum="269" jamLengthInMetersSum="1761.56" meanHaltingDuration="34.62" maxHaltingDuration="50.00" haltingDurationSum="138.50" meanIntervalHaltingDuration="34.62" maxIntervalHaltingDuration="50.00" intervalHaltingDurationSum="138.50" startedHalts="4.00" meanVehicleNumber="1.03" maxVehicleNumber="6" />
   <interval begin="0.00" end="300.00" id="me2_15" sampledSeconds="1599.67" nVehEntered="14" nVehLeft="13" nVehSeen="14" meanSpeed="2.43" meanTimeLoss="94.33" meanOccupancy="7.25" maxOccupancy="16.37" meanMaxJamLengthInVehicles="4.17" meanMaxJamLengthInMeters="29.88" maxJamLengthInVehicles="10" maxJamLengthInMeters="73.10" jamLengthInVehiclesSum="2501" jamLengthInMetersSum="17929.24" meanHaltingDuration="126.05" maxHaltingDuration="161.50" haltingDurationSum="1260.50" meanIntervalHaltingDuration="126.05" maxIntervalHaltingDuration="161.50" intervalHaltingDurationSum="1260.50" startedHalts="10.00" meanVehicleNumber="5.34" maxVehicleNumber="12" />
   <interval begin="300.00" end="600.00" id="e2_0" sampledSeconds="74.30" nVehEntered="17" nVehLeft="18" nVehSeen="18" meanSpeed="14.27" meanTimeLoss="0.09" meanOccupancy="0.38" maxOccupancy="3.08" meanMaxJamLengthInVehicles="0.00" meanMaxJamLengthInMeters="0.00" maxJamLengthInVehicles="0" maxJamLengthInMeters="0.00" jamLengthInVehiclesSum="0" jamLengthInMetersSum="0.00" meanHaltingDuration="0.00" maxHaltingDuration="0.00" haltingDurationSum="0.00" meanIntervalHaltingDuration="0.00" maxIntervalHaltingDuration="0.00" intervalHaltingDurationSum="0.00" startedHalts="0.00" meanVehicleNumber="0.26" maxVehicleNumber="2" />
   <interval begin="300.00" end="600.00" id="e2_1" sampledSeconds="260.02" nVehEntered="22" nVehLeft="22" nVehSeen="22" meanSpeed="13.51" meanTimeLoss="0.36" meanOccupancy="1.31" maxOccupancy="4.63" meanMaxJamLengthInVehicles="0.00" meanMaxJamLengthInMeters="0.00" maxJamLengthInVehicles="0" maxJamLengthInMeters="0.00" jamLengthInVehiclesSum="0" jamLengthInMetersSum="0.00" meanHaltingDuration="0.00" maxHaltingDuration="0.00" haltingDurationSum="0.00" meanIntervalHaltingDuration="0.00" maxIntervalHaltingDuration="0.00" intervalHaltingDurationSum="0.00" startedHalts="0.00" meanVehicleNumber="0.88" maxVehicleNumber="3" />
   <interval begin="300.00" end="600.00" id="e2_2" sampledSeconds="154.33" nVehEntered="12" nVehLeft="14" nVehSeen="14" meanSpeed="11.25" meanTimeLoss="2.04" meanOccupancy="0.69" maxOccupancy="4.63" meanMaxJamLengthInVehicles="0.07" meanMaxJamLengthInMeters="0.09" maxJamLengthInVehicles="1" maxJamLengthInMeters="1.52" jamLengthInVehiclesSum="41" jamLengthInMetersSum="53.24" meanHaltingDuration="21.50" maxHaltingDuration="21.50" haltingDurationSum="21.50" meanIntervalHaltingDuration="21.50" maxIntervalHaltingDuration="21.50" intervalHaltingDurationSum="21.50" startedHalts="1.00" meanVehicleNumber="0.52" maxVehicleNumber="3" />
   <interval begin="300.00" end="600.00" id="e2_3" sampledSeconds="145.21" nVehEntered="9" nVehLeft="10" nVehSeen="10" meanSpeed="13.58" meanTimeLoss="0.71" meanOccupancy="0.73" maxOccupancy="6.17" meanMaxJamLengthInVehicles="0.00" meanMaxJamLengthInMeters="0.00" maxJamLengthInVehicles="0" maxJamLengthInMeters="0.00" jamLengthInVehiclesSum="0" jamLengthInMetersSum="0.00" meanHaltingDuration="0.00" maxHaltingDuration="0.00" haltingDurationSum="0.00" meanIntervalHaltingDuration="0.00" maxIntervalHaltingDuration="0.00" intervalHaltingDurationSum="0.00" startedHalts="0.00" meanVehicleNumber="0.49" maxVehicleNumber="4" />
   <interval begin="300.00" end="600.00" id="e2_4" sampledSeconds="753.38" nVehEntered="50" nVehLeft="51" nVehSeen="52" meanSpeed="13.05" meanTimeLoss="0.76" meanOccupancy="3.81" maxOccupancy="10.79" meanMaxJamLengthInVehicles="0.00" meanMaxJamLengthInMeters="0.00" maxJamLengthInVehicles="0" maxJamLengthInMeters="0.00" jamLengthInVehiclesSum="0" jamLengthInMetersSum="0.00" meanHaltingDuration="0.00" maxHaltingDuration="0.00" haltingDurationSum="0.00" meanIntervalHaltingDuration="0.00" maxIntervalHaltingDuration="0.00" intervalHaltingDurationSum="0.00" startedHalts="0.00" meanVehicleNumber="2.56" maxVehicleNumber="7" />
   <interval begin="300.00" end="600.00" id="e2_5" sampledSeconds="611.34" nVehEntered="59" nVehLeft="59" nVehSeen="60" meanSpeed="12.82" meanTimeLoss="0.93" meanOccupancy="3.07" maxOccupancy="7.71" meanMaxJamLengthInVehicles="0.02" meanMaxJamLengthInMeters="0.07" maxJamLengthInVehicles="2" maxJamLengthInMeters="9.05" jamLengthInVehiclesSum="12" jamLengthInMetersSum="44.33" meanHaltingDuration="3.50" maxHaltingDuration="3.50" haltingDurationSum="3.50" meanIntervalHaltingDuration="3.50" maxIntervalHaltingDuration="3.50" intervalHaltingDurationSum="3.50" startedHalts="2.00" meanVehicleNumber="2.08" maxVehicleNumber="5" />
   <interval begin="300.00" end="600.00" id="e2_6" sampledSeconds="503.50" nVehEntered="42" nVehLeft="45" nVehSeen="45" meanSpeed="10.14" meanTimeLoss="2.98" meanOccupancy="2.29" maxOccupancy="9.25" meanMaxJamLengthInVehicles="0.24" meanMaxJamLengthInMeters="0.46" maxJamLengthInVehicles="2" maxJamLengthInMeters="13.56" jamLengthInVehiclesSum="143" jamLengthInMetersSum="278.98" meanHaltingDuration="18.88" maxHaltingDuration="43.50" haltingDurationSum="75.50" meanIntervalHaltingDuration="18.88" maxIntervalHaltingDuration="43.50" intervalHaltingDurationSum="75.50" startedHalts="4.00" meanVehicleNumber="1.71" maxVehicleNumber="6" />
   <interval begin="300.00" end="600.00" id="e2_7" sampledSeconds="359.58" nVehEntered="24" nVehLeft="24" nVehSeen="25" meanSpeed="9.83" meanTimeLoss="4.25" meanOccupancy="1.49" maxOccupancy="9.25" meanMaxJamLengthInVehicles="0.29" meanMaxJamLengthInMeters="0.37" maxJamLengthInVehicles="1" maxJamLengthInMeters="1.70" jamLengthInVehiclesSum="173" jamLengthInMetersSum="224.23" meanHaltingDuration="44.25" maxHaltingDuration="82.00" haltingDurationSum="88.50" meanIntervalHaltingDuration="44.25" maxIntervalHaltingDuration="82.00" intervalHaltingDurationSum="88.50" startedHalts="2.00" meanVehicleNumber="1.22" maxVehicleNumber="6" />
   <interval begin="300.00" end="600.00" id="e2_8" sampledSeconds="173.29" nVehEntered="20" nVehLeft="20" nVehSeen="20" meanSpeed="14.01" meanTimeLoss="0.19" meanOccupancy="0.88" maxOccupancy="4.63" meanMaxJamLengthInVehicles="0.00" meanMaxJamLengthInMeters="0.00" maxJamLengthInVehicles="0" maxJamLengthInMeters="0.00" jamLengthInVehiclesSum="0" jamLengthInMetersSum="0.00" meanHaltingDuration="0.00" maxHaltingDuration="0.00" haltingDurationSum="0.00" meanIntervalHaltingDuration="0.00" maxIntervalHaltingDuration="0.00" intervalHaltingDurationSum="0.00" startedHalts="0.00" meanVehicleNumber="0.59" maxVehicleNumber="3" />
   <interval begin="300.00" end="600.00" id="e2_9" sampledSeconds="216.89" nVehEntered="21" nVehLeft="22" nVehSeen="22" meanSpeed="13.38" meanTimeLoss="0.27" meanOccupancy="1.10" maxOccupancy="6.17" meanMaxJamLengthInVehicles="0.00" meanMaxJamLengthInMeters="0.00" maxJamLengthInVehicles="0" maxJamLengthInMeters="0.00" jamLengthInVehiclesSum="0" jamLengthInMetersSum="0.00" meanHaltingDuration="0.00" maxHaltingDuration="0.00" haltingDurationSum="0.00" meanIntervalHaltingDuration="0.00" maxIntervalHaltingDuration="0.00" intervalHaltingDurationSum="0.00" startedHalts="0.00" meanVehicleNumber="0.73" maxVehicleNumber="4" />
   <interval begin="300.00" end="600.00" id="e2_10" sampledSeconds="169.44" nVehEntered="13" nVehLeft="12" nVehSeen="13" meanSpeed="12.88" meanTimeLoss="0.33" meanOccupancy="0.86" maxOccupancy="4.63" meanMaxJamLengthInVehicles="0.00" meanMaxJamLengthInMeters="0.00" maxJamLengthInVehicles="0" maxJamLengthInMeters="0.00" jamLengthInVehiclesSum="0" jamLengthInMetersSum="0.00" meanHaltingDuration="0.00" maxHaltingDuration="0.00" haltingDurationSum="0.00" meanIntervalHaltingDuration="0.00" maxIntervalHaltingDuration="0.00" intervalHaltingDurationSum="0.00" startedHalts="0.00" meanVehicleNumber="0.57" maxVehicleNumber="3" />
   <interval begin="300.00" end="600.00" id="e2_11" sampledSeconds="67.67" nVehEntered="3" nVehLeft="3" nVehSeen="3" meanSpeed="13.73" meanTimeLoss="0.52" meanOccupancy="0.34" maxOccupancy="3.08" meanMaxJamLengthInVehicles="0.00" meanMaxJamLengthInMeters="0.00" maxJamLengthInVehicles="0" maxJamLengthInMeters="0.00" jamLengthInVehiclesSum="0" jamLengthInMetersSum="0.00" meanHaltingDuration="0.00" maxHaltingDuration="0.00" haltingDurationSum="0.00" meanIntervalHaltingDuration="0.00" maxIntervalHaltingDuration="0.00" intervalHaltingDurationSum="0.00" startedHalts="0.00" meanVehicleNumber="0.23" maxVehicleNumber="2" />
   <interval begin="300.00" end="600.00" id="e2_12" sampledSeconds="338.17" nVehEntered="27" nVehLeft="30" nVehSeen="30" meanSpeed="13.32" meanTimeLoss="0.43" meanOccupancy="1.71" maxOccupancy="6.17" meanMaxJamLengthInVehicles="0.00" meanMaxJamLengthInMeters="0.00" maxJamLengthInVehicles="0" maxJamLengthInMeters="0.00" jamLengthInVehiclesSum="0" jamLengthInMetersSum="0.00" meanHaltingDuration="0.00" maxHaltingDuration="0.00" haltingDurationSum="0.00" meanIntervalHaltingDuration="0.00" maxIntervalHaltingDuration="0.00" intervalHaltingDurationSum="0.00" startedHalts="0.00" meanVehicleNumber="1.15" maxVehicleNumber="4" />
   <interval begin="300.00" end="600.00" id="e2_13" sampledSeconds="161.81" nVehEntered="28" nVehLeft="27" nVehSeen="28" meanSpeed="13.79" meanTimeLoss="0.17" meanOccupancy="0.82" maxOccupancy="3.08" meanMaxJamLengthInVehicles="0.00" meanMaxJamLengthInMeters="0.00" maxJamLengthInVehicles="0" maxJamLengthInMeters="0.00" jamLengthInVehiclesSum="0" jamLengthInMetersSum="0.00" meanHaltingDuration="0.00" maxHaltingDuration="0.00" haltingDurationSum="0.00" meanIntervalHaltingDuration="0.00" maxIntervalHaltingDuration="0.00" intervalHaltingDurationSum="0.00" startedHalts="0.00" meanVehicleNumber="0.55" maxVehicleNumber="2" />